[
  {
    "question": "What is the capital of France?",
    "options": ["London", "Berlin", "Paris", "Madrid"],
    "correct_index": 2
  },
  {
    "question": "Which planet is known as the Red Planet?",
    "options": ["Venus", "Mars", "Jupiter", "Saturn"],
    "correct_index": 1
  },
  {
    "question": "What is the largest ocean on Earth?",
    "options": ["Atlantic Ocean", "Indian Ocean", "Arctic Ocean", "Pacific Ocean"],
    "correct_index": 3
  },
  {
    "question": "Who painted the Mona Lisa?",
    "options": ["Vincent van Gogh", "Pablo Picasso", "Leonardo da Vinci", "Michelangelo"],
    "correct_index": 2
  },
  {
    "question": "What is the chemical symbol for gold?",
    "options": ["Go", "Gd", "Au", "Ag"],
    "correct_index": 2
  },
  {
    "question": "How many continents are there on Earth?",
    "options": ["5", "6", "7", "8"],
    "correct_index": 2
  },
  {
    "question": "What is the largest mammal in the world?",
    "options": ["African Elephant", "Blue Whale", "Giraffe", "Hippopotamus"],
    "correct_index": 1
  },
  {
    "question": "Which country is home to the kangaroo?",
    "options": ["New Zealand", "South Africa", "Australia", "Indonesia"],
    "correct_index": 2
  },
  {
    "question": "What is the hardest natural substance on Earth?",
    "options": ["Gold", "Iron", "Diamond", "Platinum"],
    "correct_index": 2
  },
  {
    "question": "Who wrote 'Romeo and Juliet'?",
    "options": ["Charles Dickens", "William Shakespeare", "Jane Austen", "Mark Twain"],
    "correct_index": 1
  },
  {
    "question": "What is the smallest country in the world?",
    "options": ["Monaco", "San Marino", "Vatican City", "Liechtenstein"],
    "correct_index": 2
  },
  {
    "question": "How many colors are in a rainbow?",
    "options": ["5", "6", "7", "8"],
    "correct_index": 2
  },
  {
    "question": "What is the capital of Japan?",
    "options": ["Seoul", "Beijing", "Tokyo", "Bangkok"],
    "correct_index": 2
  },
  {
    "question": "Which element has the chemical symbol 'O'?",
    "options": ["Osmium", "Oxygen", "Gold", "Silver"],
    "correct_index": 1
  },
  {
    "question": "What year did World War II end?",
    "options": ["1943", "1944", "1945", "1946"],
    "correct_index": 2
  },
  {
    "question": "What is the largest planet in our solar system?",
    "options": ["Saturn", "Neptune", "Jupiter", "Uranus"],
    "correct_index": 2
  },
  {
    "question": "Which animal is known as the King of the Jungle?",
    "options": ["Tiger", "Elephant", "Lion", "Gorilla"],
    "correct_index": 2
  },
  {
    "question": "What is the main ingredient in guacamole?",
    "options": ["Tomato", "Avocado", "Onion", "Pepper"],
    "correct_index": 1
  },
  {
    "question": "How many sides does a hexagon have?",
    "options": ["5", "6", "7", "8"],
    "correct_index": 1
  },
  {
    "question": "What is the speed of light approximately?",
    "options": ["150,000 km/s", "200,000 km/s", "300,000 km/s", "400,000 km/s"],
    "correct_index": 2
  },
  {
    "question": "Which planet is closest to the Sun?",
    "options": ["Venus", "Mercury", "Earth", "Mars"],
    "correct_index": 1
  },
  {
    "question": "What is the capital of Italy?",
    "options": ["Milan", "Rome", "Venice", "Florence"],
    "correct_index": 1
  },
  {
    "question": "Who invented the telephone?",
    "options": ["Thomas Edison", "Nikola Tesla", "Alexander Graham Bell", "Guglielmo Marconi"],
    "correct_index": 2
  },
  {
    "question": "What is the largest desert in the world?",
    "options": ["Sahara Desert", "Arabian Desert", "Antarctic Desert", "Gobi Desert"],
    "correct_index": 2
  },
  {
    "question": "How many bones are in the adult human body?",
    "options": ["196", "206", "216", "226"],
    "correct_index": 1
  },
  {
    "question": "Which country invented pizza?",
    "options": ["Greece", "Spain", "Italy", "France"],
    "correct_index": 2
  },
  {
    "question": "What is the chemical formula for water?",
    "options": ["CO2", "H2O", "NaCl", "O2"],
    "correct_index": 1
  },
  {
    "question": "Who was the first person to walk on the Moon?",
    "options": ["Buzz Aldrin", "Neil Armstrong", "Yuri Gagarin", "John Glenn"],
    "correct_index": 1
  },
  {
    "question": "What is the longest river in the world?",
    "options": ["Amazon River", "Nile River", "Yangtze River", "Mississippi River"],
    "correct_index": 1
  },
  {
    "question": "Which gas do plants absorb from the atmosphere?",
    "options": ["Oxygen", "Nitrogen", "Carbon Dioxide", "Hydrogen"],
    "correct_index": 2
  },
  {
    "question": "What is the currency of the United Kingdom?",
    "options": ["Euro", "Dollar", "Pound Sterling", "Franc"],
    "correct_index": 2
  },
  {
    "question": "How many players are on a soccer team?",
    "options": ["9", "10", "11", "12"],
    "correct_index": 2
  },
  {
    "question": "What is the tallest mountain in the world?",
    "options": ["K2", "Mount Everest", "Kangchenjunga", "Lhotse"],
    "correct_index": 1
  },
  {
    "question": "Which organ pumps blood through the body?",
    "options": ["Lungs", "Brain", "Heart", "Liver"],
    "correct_index": 2
  },
  {
    "question": "What is the freezing point of water in Celsius?",
    "options": ["-10°C", "0°C", "10°C", "32°C"],
    "correct_index": 1
  },
  {
    "question": "Which country has the most population?",
    "options": ["United States", "India", "China", "Indonesia"],
    "correct_index": 1
  },
  {
    "question": "What is the square root of 144?",
    "options": ["10", "11", "12", "14"],
    "correct_index": 2
  },
  {
    "question": "Who painted 'The Starry Night'?",
    "options": ["Claude Monet", "Vincent van Gogh", "Pablo Picasso", "Salvador Dalí"],
    "correct_index": 1
  },
  {
    "question": "What is the capital of Canada?",
    "options": ["Toronto", "Vancouver", "Ottawa", "Montreal"],
    "correct_index": 2
  },
  {
    "question": "How many days are in a leap year?",
    "options": ["364", "365", "366", "367"],
    "correct_index": 2
  },
  {
    "question": "What is the largest organ in the human body?",
    "options": ["Heart", "Liver", "Brain", "Skin"],
    "correct_index": 3
  },
  {
    "question": "Which metal is liquid at room temperature?",
    "options": ["Lead", "Mercury", "Aluminum", "Zinc"],
    "correct_index": 1
  },
  {
    "question": "What is the capital of Germany?",
    "options": ["Munich", "Frankfurt", "Berlin", "Hamburg"],
    "correct_index": 2
  },
  {
    "question": "How many teeth does an adult human typically have?",
    "options": ["28", "30", "32", "34"],
    "correct_index": 2
  },
  {
    "question": "Which planet has the most moons?",
    "options": ["Jupiter", "Saturn", "Uranus", "Neptune"],
    "correct_index": 1
  },
  {
    "question": "What is the main language spoken in Brazil?",
    "options": ["Spanish", "Portuguese", "English", "French"],
    "correct_index": 1
  },
  {
    "question": "Who discovered penicillin?",
    "options": ["Louis Pasteur", "Alexander Fleming", "Joseph Lister", "Robert Koch"],
    "correct_index": 1
  },
  {
    "question": "What is the boiling point of water in Celsius?",
    "options": ["90°C", "100°C", "110°C", "212°C"],
    "correct_index": 1
  },
  {
    "question": "Which continent is the Sahara Desert located on?",
    "options": ["Asia", "Australia", "Africa", "South America"],
    "correct_index": 2
  },
  {
    "question": "What is the smallest prime number?",
    "options": ["0", "1", "2", "3"],
    "correct_index": 2
  },
  {
    "question": "Who wrote 'Harry Potter'?",
    "options": ["Stephen King", "J.R.R. Tolkien", "J.K. Rowling", "George R.R. Martin"],
    "correct_index": 2
  },
  {
    "question": "What is the capital of Australia?",
    "options": ["Sydney", "Melbourne", "Canberra", "Perth"],
    "correct_index": 2
  },
  {
    "question": "How many strings does a standard guitar have?",
    "options": ["4", "5", "6", "8"],
    "correct_index": 2
  },
  {
    "question": "Which vitamin is produced when skin is exposed to sunlight?",
    "options": ["Vitamin A", "Vitamin C", "Vitamin D", "Vitamin E"],
    "correct_index": 2
  },
  {
    "question": "What is the largest bird in the world?",
    "options": ["Emu", "Ostrich", "Albatross", "Condor"],
    "correct_index": 1
  },
  {
    "question": "Which country is known as the Land of the Rising Sun?",
    "options": ["China", "Japan", "Korea", "Thailand"],
    "correct_index": 1
  },
  {
    "question": "What is the atomic number of carbon?",
    "options": ["4", "6", "8", "12"],
    "correct_index": 1
  },
  {
    "question": "Who developed the theory of relativity?",
    "options": ["Isaac Newton", "Albert Einstein", "Stephen Hawking", "Niels Bohr"],
    "correct_index": 1
  },
  {
    "question": "What is the capital of Spain?",
    "options": ["Barcelona", "Seville", "Madrid", "Valencia"],
    "correct_index": 2
  },
  {
    "question": "How many weeks are in a year?",
    "options": ["48", "50", "52", "54"],
    "correct_index": 2
  },
  {
    "question": "Which ocean lies between Africa and Australia?",
    "options": ["Atlantic Ocean", "Pacific Ocean", "Indian Ocean", "Arctic Ocean"],
    "correct_index": 2
  },
  {
    "question": "What is the chemical symbol for silver?",
    "options": ["Si", "Sv", "Ag", "Au"],
    "correct_index": 2
  },
  {
    "question": "Who was the first President of the United States?",
    "options": ["John Adams", "Thomas Jefferson", "George Washington", "Benjamin Franklin"],
    "correct_index": 2
  },
  {
    "question": "What is the largest land animal?",
    "options": ["Rhinoceros", "Hippopotamus", "African Elephant", "Giraffe"],
    "correct_index": 2
  },
  {
    "question": "Which gas makes up most of Earth's atmosphere?",
    "options": ["Oxygen", "Carbon Dioxide", "Nitrogen", "Hydrogen"],
    "correct_index": 2
  },
  {
    "question": "What is the capital of Russia?",
    "options": ["St. Petersburg", "Moscow", "Kiev", "Minsk"],
    "correct_index": 1
  },
  {
    "question": "How many chambers does the human heart have?",
    "options": ["2", "3", "4", "5"],
    "correct_index": 2
  },
  {
    "question": "Which planet is known for its rings?",
    "options": ["Jupiter", "Saturn", "Uranus", "Neptune"],
    "correct_index": 1
  },
  {
    "question": "What is the main component of the Sun?",
    "options": ["Helium", "Hydrogen", "Carbon", "Oxygen"],
    "correct_index": 1
  },
  {
    "question": "Who wrote 'The Odyssey'?",
    "options": ["Aristotle", "Plato", "Homer", "Socrates"],
    "correct_index": 2
  },
  {
    "question": "What is the capital of Egypt?",
    "options": ["Alexandria", "Cairo", "Luxor", "Giza"],
    "correct_index": 1
  },
  {
    "question": "How many degrees are in a circle?",
    "options": ["180", "270", "360", "400"],
    "correct_index": 2
  },
  {
    "question": "Which blood type is known as the universal donor?",
    "options": ["A", "B", "AB", "O"],
    "correct_index": 3
  },
  {
    "question": "What is the largest country by land area?",
    "options": ["Canada", "China", "United States", "Russia"],
    "correct_index": 3
  },
  {
    "question": "Which instrument has 88 keys?",
    "options": ["Guitar", "Violin", "Piano", "Organ"],
    "correct_index": 2
  },
  {
    "question": "What is the speed of sound in air approximately?",
    "options": ["243 m/s", "343 m/s", "443 m/s", "543 m/s"],
    "correct_index": 1
  },
  {
    "question": "Who invented the light bulb?",
    "options": ["Benjamin Franklin", "Nikola Tesla", "Thomas Edison", "Alexander Graham Bell"],
    "correct_index": 2
  },
  {
    "question": "What is the capital of Brazil?",
    "options": ["Rio de Janeiro", "São Paulo", "Brasília", "Salvador"],
    "correct_index": 2
  },
  {
    "question": "How many planets are in our solar system?",
    "options": ["7", "8", "9", "10"],
    "correct_index": 1
  },
  {
    "question": "Which element is essential for human respiration?",
    "options": ["Nitrogen", "Carbon", "Oxygen", "Hydrogen"],
    "correct_index": 2
  },
  {
    "question": "What is the longest bone in the human body?",
    "options": ["Tibia", "Humerus", "Femur", "Fibula"],
    "correct_index": 2
  },
  {
    "question": "Which country won the first FIFA World Cup?",
    "options": ["Brazil", "Argentina", "Uruguay", "Germany"],
    "correct_index": 2
  },
  {
    "question": "What is the chemical symbol for sodium?",
    "options": ["So", "Sd", "Na", "Nm"],
    "correct_index": 2
  },
  {
    "question": "Who painted the Sistine Chapel ceiling?",
    "options": ["Leonardo da Vinci", "Raphael", "Michelangelo", "Donatello"],
    "correct_index": 2
  },
  {
    "question": "What is the capital of South Korea?",
    "options": ["Busan", "Seoul", "Incheon", "Daegu"],
    "correct_index": 1
  },
  {
    "question": "How many Olympic rings are there?",
    "options": ["4", "5", "6", "7"],
    "correct_index": 1
  },
  {
    "question": "Which animal can sleep for 3 years?",
    "options": ["Bear", "Sloth", "Snail", "Bat"],
    "correct_index": 2
  },
  {
    "question": "What is the hottest planet in our solar system?",
    "options": ["Mercury", "Venus", "Mars", "Jupiter"],
    "correct_index": 1
  },
  {
    "question": "Who composed the 'Moonlight Sonata'?",
    "options": ["Mozart", "Bach", "Beethoven", "Chopin"],
    "correct_index": 2
  },
  {
    "question": "What is the capital of India?",
    "options": ["Mumbai", "New Delhi", "Kolkata", "Chennai"],
    "correct_index": 1
  },
  {
    "question": "How many legs does a spider have?",
    "options": ["6", "8", "10", "12"],
    "correct_index": 1
  },
  {
    "question": "Which ocean is the smallest?",
    "options": ["Atlantic", "Indian", "Arctic", "Pacific"],
    "correct_index": 2
  },
  {
    "question": "What is the currency of Japan?",
    "options": ["Yuan", "Won", "Yen", "Baht"],
    "correct_index": 2
  },
  {
    "question": "Who discovered gravity?",
    "options": ["Galileo Galilei", "Isaac Newton", "Albert Einstein", "Johannes Kepler"],
    "correct_index": 1
  },
  {
    "question": "What is the capital of Mexico?",
    "options": ["Guadalajara", "Monterrey", "Mexico City", "Cancún"],
    "correct_index": 2
  },
  {
    "question": "How many minutes are in a day?",
    "options": ["1240", "1340", "1440", "1540"],
    "correct_index": 2
  },
  {
    "question": "Which vitamin is good for eyesight?",
    "options": ["Vitamin A", "Vitamin B", "Vitamin C", "Vitamin D"],
    "correct_index": 0
  }
]
